2
Properties=species:S:1:pos:R:3:mulliken:R:1:hirshfeld:R:1 dipole_vector="0.04706 1.69485 -1.79225" energy=-218.90366792620694 pbc="F F F"
Li       0.00451011       0.16239181      -0.17172468       0.34534000       0.37600200
H       -0.03105172      -1.11805473       1.18231077      -0.34534000      -0.37601600
2
Properties=species:S:1:pos:R:3:mulliken:R:1:hirshfeld:R:1 dipole_vector="0.04891 1.76325 -1.80194" energy=-218.82006312336753 pbc="F F F"
Li       0.00476422       0.17172565      -0.17549386       0.34448300       0.37256700
H       -0.03280131      -1.18231744       1.20826128      -0.34448300      -0.37257800
2
Properties=species:S:1:pos:R:3:mulliken:R:1:hirshfeld:R:1 dipole_vector="0.05036 1.81684 -1.79808" energy=-218.76265524371374 pbc="F F F"
Li       0.00495368       0.17870166      -0.17685648       0.34426600       0.37068700
H       -0.03410572      -1.23034674       1.21764285      -0.34426600      -0.37069600
2
Properties=species:S:1:pos:R:3:mulliken:R:1:hirshfeld:R:1 dipole_vector="0.05137 1.85456 -1.7793" energy=-218.73933298909031 pbc="F F F"
Li       0.00507238       0.18310691      -0.17567745       0.34424400       0.37001000
H       -0.03492296      -1.26067656       1.20952529      -0.34424400      -0.37001900
2
Properties=species:S:1:pos:R:3:mulliken:R:1:hirshfeld:R:1 dipole_vector="0.0034 0.12032 -2.51046" energy=-218.83327152731377 pbc="F F F"
Li       0.00033067       0.01169079      -0.24390618       0.34461800       0.37305500
H       -0.00227661      -0.08049014       1.67927466      -0.34461800      -0.37306000
2
Properties=species:S:1:pos:R:3:mulliken:R:1:hirshfeld:R:1 dipole_vector="0.05194 1.87611 -1.74512" energy=-218.75242555601665 pbc="F F F"
Li       0.00511742       0.18484056      -0.17193729       0.34425500       0.37038500
H       -0.03523300      -1.27261259       1.18377461      -0.34425500      -0.37039300
2
Properties=species:S:1:pos:R:3:mulliken:R:1:hirshfeld:R:1 dipole_vector="0.05207 1.88182 -1.69568" energy=-218.80059739203364 pbc="F F F"
Li       0.00508891       0.18390324      -0.16571447       0.34439000       0.37189400
H       -0.03503671      -1.26615921       1.14093099      -0.34439000      -0.37190200
2
Properties=species:S:1:pos:R:3:mulliken:R:1:hirshfeld:R:1 dipole_vector="0.05179 1.87283 -1.63179" energy=-218.87788314778973 pbc="F F F"
Li       0.00499011       0.18040968      -0.15718963       0.34498800       0.37483300
H       -0.03435652      -1.24210634       1.08223816      -0.34498800      -0.37484200
2
Properties=species:S:1:pos:R:3:mulliken:R:1:hirshfeld:R:1 dipole_vector="0.05118 1.85151 -1.55515" energy=-218.96938834819963 pbc="F F F"
Li       0.00482800       0.17461715      -0.14666242       0.34670000       0.37961000
H       -0.03324042      -1.20222524       1.00975914      -0.34670000      -0.37961500
2
Properties=species:S:1:pos:R:3:mulliken:R:1:hirshfeld:R:1 dipole_vector="0.05035 1.82221 -1.4688" energy=-219.04707053526434 pbc="F F F"
Li       0.00461613       0.16702550      -0.13462309       0.35032400       0.38646700
H       -0.03178165      -1.14995728       0.92686927      -0.35032400      -0.38647300
2
Properties=species:S:1:pos:R:3:mulliken:R:1:hirshfeld:R:1 dipole_vector="0.0495 1.79217 -1.37762" energy=-219.0711730630212 pbc="F F F"
Li       0.00437945       0.15855129      -0.12186637       0.35685500       0.39510900
H       -0.03015219      -1.09161301       0.83904030      -0.35685500      -0.39511500
2
Properties=species:S:1:pos:R:3:mulliken:R:1:hirshfeld:R:1 dipole_vector="0.04887 1.77103 -1.28783" energy=-219.01081842460547 pbc="F F F"
Li       0.00415908       0.15070458      -0.10957979       0.36634500       0.40417800
H       -0.02863493      -1.03758904       0.75444813      -0.36634500      -0.40420300
2
Properties=species:S:1:pos:R:3:mulliken:R:1:hirshfeld:R:1 dipole_vector="0.04874 1.76879 -1.20606" energy=-218.89326959629864 pbc="F F F"
Li       0.00401377       0.14562000      -0.09928800       0.37612300       0.41127700
H       -0.02763448      -1.00258214       0.68358999      -0.37612300      -0.41130400
2
Properties=species:S:1:pos:R:3:mulliken:R:1:hirshfeld:R:1 dipole_vector="0.04929 1.79219 -1.13789" energy=-218.82711941884554 pbc="F F F"
Li       0.00400300       0.14552147      -0.09239167       0.38066100       0.41405000
H       -0.02756031      -1.00190377       0.63610930      -0.38066100      -0.41407200
2
Properties=species:S:1:pos:R:3:mulliken:R:1:hirshfeld:R:1 dipole_vector="0.05054 1.84257 -1.08695" energy=-218.88820496992014 pbc="F F F"
Li       0.00415675       0.15152442      -0.08938303       0.37647100       0.41150300
H       -0.02861888      -1.04323363       0.61539507      -0.37647100      -0.41152400
2
Properties=species:S:1:pos:R:3:mulliken:R:1:hirshfeld:R:1 dipole_vector="0.00454 0.16065 -2.44935" energy=-218.92156524506083 pbc="F F F"
Li       0.00043371       0.01533314      -0.23375315       0.34566900       0.37688700
H       -0.00298609      -0.10556745       1.60937188      -0.34566900      -0.37689300
2
Properties=species:S:1:pos:R:3:mulliken:R:1:hirshfeld:R:1 dipole_vector="0.05244 1.91633 -1.05364" energy=-219.00612024544535 pbc="F F F"
Li       0.00445372       0.16278947      -0.08950423       0.36678500       0.40455200
H       -0.03066349      -1.12079258       0.61622953      -0.36678500      -0.40457000
2
Properties=species:S:1:pos:R:3:mulliken:R:1:hirshfeld:R:1 dipole_vector="0.05477 2.00576 -1.03426" energy=-219.07034048516837 pbc="F F F"
Li       0.00483517       0.17713315      -0.09133948       0.35718900       0.39552000
H       -0.03328979      -1.21954771       0.62886508      -0.35718900      -0.39552400
2
Properties=species:S:1:pos:R:3:mulliken:R:1:hirshfeld:R:1 dipole_vector="0.05727 2.10076 -1.02259" energy=-219.04979453508955 pbc="F F F"
Li       0.00523895       0.19225718      -0.09358932       0.35056400       0.38684500
H       -0.03606972      -1.32367539       0.64435501      -0.35056400      -0.38685100
2
Properties=species:S:1:pos:R:3:mulliken:R:1:hirshfeld:R:1 dipole_vector="0.05965 2.19145 -1.01252" energy=-218.97394132966244 pbc="F F F"
Li       0.00561715       0.20641719      -0.09537671       0.34680900       0.37989300
H       -0.03867364      -1.42116596       0.65666107      -0.34680900      -0.37990000
2
Properties=species:S:1:pos:R:3:mulliken:R:1:hirshfeld:R:1 dipole_vector="0.06172 2.27025 -0.99956" energy=-218.88272411086106 pbc="F F F"
Li       0.00593818       0.21847816      -0.09619799       0.34505100       0.37503800
H       -0.04088386      -1.50420479       0.66231552      -0.34505100      -0.37504700
2
Properties=species:S:1:pos:R:3:mulliken:R:1:hirshfeld:R:1 dipole_vector="0.06333 2.33234 -0.98096" energy=-218.8048824959048 pbc="F F F"
Li       0.00618402       0.22775770      -0.09579740       0.34442900       0.37204000
H       -0.04257646      -1.56809367       0.65955746      -0.34442900      -0.37204600
2
Properties=species:S:1:pos:R:3:mulliken:R:1:hirshfeld:R:1 dipole_vector="0.06443 2.3751 -0.95527" energy=-218.7558220535734 pbc="F F F"
Li       0.00634413       0.23386773      -0.09406608       0.34428400       0.37048800
H       -0.04367887      -1.61016074       0.64763753      -0.34428400      -0.37049200
2
Properties=species:S:1:pos:R:3:mulliken:R:1:hirshfeld:R:1 dipole_vector="0.06497 2.39731 -0.92179" energy=-218.7417014523473 pbc="F F F"
Li       0.00641259       0.23659765      -0.09097738       0.34426900       0.37008100
H       -0.04415015      -1.62895605       0.62637201      -0.34426900      -0.37008500
2
Properties=species:S:1:pos:R:3:mulliken:R:1:hirshfeld:R:1 dipole_vector="0.06496 2.39873 -0.88027" energy=-218.7638869301763 pbc="F F F"
Li       0.00638759       0.23588034      -0.08656465       0.34429100       0.37072800
H       -0.04397805      -1.62401740       0.59599076      -0.34429100      -0.37073100
2
Properties=species:S:1:pos:R:3:mulliken:R:1:hirshfeld:R:1 dipole_vector="0.06439 2.37996 -0.83079" energy=-218.82006483425624 pbc="F F F"
Li       0.00627095       0.23178231      -0.08091242       0.34450500       0.37257100
H       -0.04317498      -1.59580279       0.55707558      -0.34450500      -0.37257500
2
Properties=species:S:1:pos:R:3:mulliken:R:1:hirshfeld:R:1 dipole_vector="0.00571 0.2019 -2.37265" energy=-219.01171207933945 pbc="F F F"
Li       0.00053168       0.01879469      -0.22084399       0.34818000       0.38272900
H       -0.00366055      -0.12939996       1.52049331      -0.34818000      -0.38273200
2
Properties=species:S:1:pos:R:3:mulliken:R:1:hirshfeld:R:1 dipole_vector="0.06331 2.34271 -0.77374" energy=-218.90246569579767 pbc="F F F"
Li       0.00606827       0.22452077      -0.07415594       0.34533900       0.37594700
H       -0.04177959      -1.54580772       0.51055780      -0.34533900      -0.37595500
2
Properties=species:S:1:pos:R:3:mulliken:R:1:hirshfeld:R:1 dipole_vector="0.06183 2.2903 -0.7099" energy=-218.99303864038097 pbc="F F F"
Li       0.00579103       0.21451074      -0.06649122       0.34744800       0.38124200
H       -0.03987077      -1.47688940       0.45778680      -0.34744800      -0.38124800
2
Properties=species:S:1:pos:R:3:mulliken:R:1:hirshfeld:R:1 dipole_vector="0.06008 2.22877 -0.64061" energy=-219.0604031416364 pbc="F F F"
Li       0.00545960       0.20250929      -0.05820686       0.35178500       0.38862300
H       -0.03758888      -1.39426042       0.40074965      -0.35178500      -0.38863400
2
Properties=species:S:1:pos:R:3:mulliken:R:1:hirshfeld:R:1 dipole_vector="0.05832 2.16737 -0.56769" energy=-219.06402350742928 pbc="F F F"
Li       0.00510828       0.18982937      -0.04972248       0.35906900       0.39750100
H       -0.03517011      -1.30696018       0.34233529      -0.35906900      -0.39750500
2
Properties=species:S:1:pos:R:3:mulliken:R:1:hirshfeld:R:1 dipole_vector="0.05686 2.11788 -0.49336" energy=-218.98298974584011 pbc="F F F"
Li       0.00479232       0.17851373      -0.04158762       0.36899500       0.40627200
H       -0.03299478      -1.22905283       0.28632750      -0.36899500      -0.40628000
2
Properties=species:S:1:pos:R:3:mulliken:R:1:hirshfeld:R:1 dipole_vector="0.05599 2.09148 -0.41994" energy=-218.86736683461785 pbc="F F F"
Li       0.00458340       0.17121945      -0.03438166       0.37793500       0.41240600
H       -0.03155636      -1.17883236       0.23671499      -0.37793500      -0.41240700
2
Properties=species:S:1:pos:R:3:mulliken:R:1:hirshfeld:R:1 dipole_vector="0.0559 2.09513 -0.35005" energy=-218.8327230775835 pbc="F F F"
Li       0.00454419       0.17031049      -0.02845812       0.38027900       0.41381500
H       -0.03128642      -1.17257420       0.19593186      -0.38027900      -0.41381700
2
Properties=species:S:1:pos:R:3:mulliken:R:1:hirshfeld:R:1 dipole_vector="0.05664 2.12991 -0.28632" energy=-218.9193019478788 pbc="F F F"
Li       0.00469230       0.17642711      -0.02371911       0.37419100       0.40999500
H       -0.03230608      -1.21468665       0.16330419      -0.37419100      -0.41000000
2
Properties=species:S:1:pos:R:3:mulliken:R:1:hirshfeld:R:1 dipole_vector="0.05811 2.19124 -0.22997" energy=-219.0307953121386 pbc="F F F"
Li       0.00498624       0.18800276      -0.01973304       0.36414800       0.40230400
H       -0.03432985      -1.29438412       0.13586042      -0.36414800      -0.40231000
2
Properties=species:S:1:pos:R:3:mulliken:R:1:hirshfeld:R:1 dipole_vector="0.06004 2.26946 -0.18002" energy=-219.07258526380494 pbc="F F F"
Li       0.00535458       0.20235690      -0.01605404       0.35523600       0.39320900
H       -0.03686582      -1.39321122       0.11053077      -0.35523600      -0.39321400
2
Properties=species:S:1:pos:R:3:mulliken:R:1:hirshfeld:R:1 dipole_vector="0.00694 0.24527 -2.28737" energy=-219.06851274491422 pbc="F F F"
Li       0.00062538       0.02210305      -0.20611079       0.35325500       0.39065700
H       -0.00430571      -0.15217771       1.41905645      -0.35325500      -0.39066500
2
Properties=species:S:1:pos:R:3:mulliken:R:1:hirshfeld:R:1 dipole_vector="0.0 0.0 -2.56973" energy=-218.74087477280722 pbc="F F F"
Li       0.00000000       0.00000000      -0.25364872       0.34428800       0.37006000
H        0.00000000       0.00000000       1.74635128      -0.34428800      -0.37006300
2
Properties=species:S:1:pos:R:3:mulliken:R:1:hirshfeld:R:1 dipole_vector="0.00828 0.2927 -2.20357" energy=-219.05122365863426 pbc="F F F"
Li       0.00071858       0.02538742      -0.19110969       0.36142600       0.39981700
H       -0.00494734      -0.17479037       1.31577505      -0.36142600      -0.39982200
2
Properties=species:S:1:pos:R:3:mulliken:R:1:hirshfeld:R:1 dipole_vector="0.00982 0.34667 -2.13334" energy=-218.95089006308257 pbc="F F F"
Li       0.00081980       0.02895161      -0.17814649       0.37172500       0.40828900
H       -0.00564422      -0.19932951       1.22652445      -0.37172500      -0.40829600
2
Properties=species:S:1:pos:R:3:mulliken:R:1:hirshfeld:R:1 dipole_vector="0.01159 0.40895 -2.08743" energy=-218.84166652861512 pbc="F F F"
Li       0.00094336       0.03330564      -0.16998673       0.37968300       0.41346300
H       -0.00649495      -0.22930669       1.17034511      -0.37968300      -0.41346200
2
Properties=species:S:1:pos:R:3:mulliken:R:1:hirshfeld:R:1 dipole_vector="0.01357 0.47909 -2.07202" energy=-218.8400098101262 pbc="F F F"
Li       0.00110464       0.03900460      -0.16867601       0.37979300       0.41352700
H       -0.00760534      -0.26854360       1.16132094      -0.37979300      -0.41352500
2
Properties=species:S:1:pos:R:3:mulliken:R:1:hirshfeld:R:1 dipole_vector="0.0157 0.55453 -2.0877" energy=-218.94779784504024 pbc="F F F"
Li       0.00130952       0.04627188      -0.17419207       0.37197200       0.40846000
H       -0.00901598      -0.31857825       1.19929854      -0.37197200      -0.40846100
2
Properties=species:S:1:pos:R:3:mulliken:R:1:hirshfeld:R:1 dipole_vector="0.01788 0.63229 -2.12913" energy=-219.0495525405329 pbc="F F F"
Li       0.00154914       0.05478338      -0.18446642       0.36167400       0.40005200
H       -0.01066571      -0.37717920       1.27003663      -0.36167400      -0.40005200
2
Properties=species:S:1:pos:R:3:mulliken:R:1:hirshfeld:R:1 dipole_vector="0.02005 0.70963 -2.1859" energy=-219.06919007478925 pbc="F F F"
Li       0.00180506       0.06388392      -0.19677673       0.35342400       0.39089700
H       -0.01242767      -0.43983572       1.35479215      -0.35342400      -0.39090300
2
Properties=species:S:1:pos:R:3:mulliken:R:1:hirshfeld:R:1 dipole_vector="0.02213 0.78387 -2.24597" energy=-219.01409697966133 pbc="F F F"
Li       0.00205836       0.07290515      -0.20887753       0.34826400       0.38293000
H       -0.01417167      -0.50194620       1.43810522      -0.34826400      -0.38293800
2
Properties=species:S:1:pos:R:3:mulliken:R:1:hirshfeld:R:1 dipole_vector="0.02406 0.85271 -2.29927" energy=-218.92465125915209 pbc="F F F"
Li       0.00229465       0.08132721      -0.21927820       0.34569200       0.37703800
H       -0.01579847      -0.55993135       1.50971298      -0.34569200      -0.37704600
2
Properties=species:S:1:pos:R:3:mulliken:R:1:hirshfeld:R:1 dipole_vector="0.02579 0.91436 -2.33883" energy=-218.83643915556266 pbc="F F F"
Li       0.00250385       0.08878950      -0.22709955       0.34461300       0.37316700
H       -0.01723877      -0.61130870       1.56356236      -0.34461300      -0.37317300
2
Properties=species:S:1:pos:R:3:mulliken:R:1:hirshfeld:R:1 dipole_vector="0.00114 0.04023 -2.5721" energy=-218.73635372948425 pbc="F F F"
Li       0.00011241       0.00397447      -0.25406727       0.34428700       0.36993400
H       -0.00077396      -0.02736394       1.74923299      -0.34428700      -0.36993700
2
Properties=species:S:1:pos:R:3:mulliken:R:1:hirshfeld:R:1 dipole_vector="0.02728 0.96775 -2.36072" energy=-218.7712981297756 pbc="F F F"
Li       0.00267925       0.09505079      -0.23185616       0.34431500       0.37095400
H       -0.01844639      -0.65441713       1.59631128      -0.34431500      -0.37096000
2
Properties=species:S:1:pos:R:3:mulliken:R:1:hirshfeld:R:1 dipole_vector="0.02853 1.0123 -2.36291" energy=-218.73914139957176 pbc="F F F"
Li       0.00281632       0.09995190      -0.23329922       0.34428100       0.37001100
H       -0.01939014      -0.68816086       1.60624663      -0.34428100      -0.37001800
2
Properties=species:S:1:pos:R:3:mulliken:R:1:hirshfeld:R:1 dipole_vector="0.02952 1.04786 -2.34463" energy=-218.7433245584342 pbc="F F F"
Li       0.00291223       0.10339334      -0.23133776       0.34428800       0.37013000
H       -0.02005045      -0.71185493       1.59274213      -0.34428800      -0.37013700
2
Properties=species:S:1:pos:R:3:mulliken:R:1:hirshfeld:R:1 dipole_vector="0.03026 1.07461 -2.30592" energy=-218.78339428761095 pbc="F F F"
Li       0.00296575       0.10533095      -0.22601376       0.34436000       0.37133400
H       -0.02041893      -0.72519522       1.55608678      -0.34436000      -0.37134200
2
Properties=species:S:1:pos:R:3:mulliken:R:1:hirshfeld:R:1 dipole_vector="0.03078 1.09314 -2.24772" energy=-218.85480839391968 pbc="F F F"
Li       0.00297752       0.10578207      -0.21750298       0.34477400       0.37387300
H       -0.02050001      -0.72830115       1.49749072      -0.34477400      -0.37388300
2
Properties=species:S:1:pos:R:3:mulliken:R:1:hirshfeld:R:1 dipole_vector="0.0311 1.10475 -2.17214" energy=-218.94542658725558 pbc="F F F"
Li       0.00295043       0.10484244      -0.20613545       0.34610300       0.37815300
H       -0.02031351      -0.72183190       1.41922621      -0.34610300      -0.37816100
2
Properties=species:S:1:pos:R:3:mulliken:R:1:hirshfeld:R:1 dipole_vector="0.0313 1.11189 -2.08311" energy=-219.030521838607 pbc="F F F"
Li       0.00289051       0.10273681      -0.19247513       0.34914800       0.38450600
H       -0.01990095      -0.70733480       1.32517603      -0.34914800      -0.38450600
2
Properties=species:S:1:pos:R:3:mulliken:R:1:hirshfeld:R:1 dipole_vector="0.03149 1.11882 -1.98723" energy=-219.07235955431042 pbc="F F F"
Li       0.00281072       0.09992288      -0.17748208       0.35486500       0.39280100
H       -0.01935160      -0.68796113       1.22195000      -0.35486500      -0.39280600
2
Properties=species:S:1:pos:R:3:mulliken:R:1:hirshfeld:R:1 dipole_vector="0.03183 1.13173 -1.89359" energy=-219.0337005347334 pbc="F F F"
Li       0.00273425       0.09722661      -0.16268221       0.36377900       0.40200300
H       -0.01882510      -0.66939749       1.12005413      -0.36377900      -0.40202500
2
Properties=species:S:1:pos:R:3:mulliken:R:1:hirshfeld:R:1 dipole_vector="0.03253 1.15748 -1.81227" energy=-218.9219173056739 pbc="F F F"
Li       0.00269686       0.09593225      -0.15020657       0.37400400       0.40988500
H       -0.01856767      -0.66048593       1.03416029      -0.37400400      -0.40991600
2
Properties=species:S:1:pos:R:3:mulliken:R:1:hirshfeld:R:1 dipole_vector="0.00227 0.08029 -2.55208" energy=-218.76827305865828 pbc="F F F"
Li       0.00022315       0.00788964      -0.25077641       0.34432400       0.37086500
H       -0.00153637      -0.05431956       1.72657569      -0.34432400      -0.37086800
2
Properties=species:S:1:pos:R:3:mulliken:R:1:hirshfeld:R:1 dipole_vector="0.03373 1.20114 -1.75182" energy=-218.83056016652426 pbc="F F F"
Li       0.00274109       0.09759175      -0.14233878       0.38044000       0.41392000
H       -0.01887221      -0.67191143       0.97999119      -0.38044000      -0.41394200
2
Properties=species:S:1:pos:R:3:mulliken:R:1:hirshfeld:R:1 dipole_vector="0.03541 1.26362 -1.71715" energy=-218.86137363321527 pbc="F F F"
Li       0.00289617       0.10331075      -0.14039543       0.37836500       0.41267700
H       -0.01993989      -0.71128632       0.96661138      -0.37836500      -0.41269500
2
Properties=species:S:1:pos:R:3:mulliken:R:1:hirshfeld:R:1 dipole_vector="0.03752 1.34202 -1.70862" energy=-218.9780352570023 pbc="F F F"
Li       0.00315822       0.11293869      -0.14379749       0.36944500       0.40661500
H       -0.02174408      -0.77757391       0.99003429      -0.36944500      -0.40663000
2
Properties=species:S:1:pos:R:3:mulliken:R:1:hirshfeld:R:1 dipole_vector="0.03991 1.43108 -1.7211" energy=-219.06260483602293 pbc="F F F"
Li       0.00349239       0.12516686      -0.15054396       0.35938200       0.39782200
H       -0.02404482      -0.86176393       1.03648321      -0.35938200      -0.39782500
2
Properties=species:S:1:pos:R:3:mulliken:R:1:hirshfeld:R:1 dipole_vector="0.04242 1.52399 -1.74541" energy=-219.0615825009302 pbc="F F F"
Li       0.00385272       0.13833561      -0.15844328       0.35189900       0.38884500
H       -0.02652568      -0.95242967       1.09086937      -0.35189900      -0.38885700
2
Properties=species:S:1:pos:R:3:mulliken:R:1:hirshfeld:R:1 dipole_vector="0.04486 1.6138 -1.77172" energy=-218.99493763269706 pbc="F F F"
Li       0.00420088       0.15106183      -0.16584787       0.34747200       0.38137400
H       -0.02892271      -1.04004871       1.14184940      -0.34747200      -0.38138700
8
Properties=species:S:1:pos:R:3:mulliken:R:1:hirshfeld:R:1 dipole_vector="-0.08111 0.38431 1.03866" energy=-879.9643145158734 pbc="F F F"
H        0.21796075      -1.03770710      -2.78315634      -0.43330900      -0.33185900
Li      -0.16060127      -0.53891290      -0.91929116       0.44609700       0.24006400
H       -0.86432937      -0.95147640       0.95958760      -0.54084000      -0.26375100
Li      -0.59906071      -0.09733507       2.72975336       0.61109500       0.40888300
Li       0.40492165       0.46401830      -2.61821247       0.57100700       0.33758700
H        0.17510951       0.92024227      -1.28473432      -0.58679100      -0.30954000
Li       0.37155423       0.20988305       0.90070892       0.44758500       0.27252300
H        0.35549687       0.80970054       2.46829011      -0.51484400      -0.35405200
8
Properties=species:S:1:pos:R:3:mulliken:R:1:hirshfeld:R:1 dipole_vector="-0.19088 0.27292 1.11952" energy=-879.8698287823919 pbc="F F F"
H        0.20310125      -0.95134452      -2.72748612      -0.45581200      -0.33993300
Li      -0.18477049      -0.55718282      -0.88901201       0.44010500       0.24316500
H       -0.82748806      -0.92064421       0.92396160      -0.56248400      -0.26760000
Li      -0.63894939      -0.07854663       2.72117614       0.62199600       0.41971600
Li       0.42380499       0.44390454      -2.58551970       0.59150200       0.33187700
H        0.22236942       0.96676122      -1.32098226      -0.58083700      -0.30462100
Li       0.40439092       0.21263575       0.85364069       0.47345400       0.27233900
H        0.37120021       0.76194661       2.43405176      -0.52792500      -0.35509300
8
Properties=species:S:1:pos:R:3:mulliken:R:1:hirshfeld:R:1 dipole_vector="-0.33604 0.14412 1.12081" energy=-880.0860364852255 pbc="F F F"
H        0.18109015      -0.90427753      -2.66771945      -0.47510200      -0.34480000
Li      -0.21237998      -0.58058480      -0.86084461       0.44636700       0.24201400
H       -0.79062860      -0.89229942       0.88646482      -0.58709400      -0.27255100
Li      -0.68588064      -0.06560094       2.71436699       0.61092600       0.42831700
Li       0.44513368       0.42812005      -2.56025009       0.58589400       0.32914100
H        0.26975889       1.03653126      -1.30249931      -0.56232300      -0.29406100
Li       0.43986478       0.21948788       0.80729199       0.50121800       0.26124000
H        0.43108840       0.75025406       2.39137688      -0.51988500      -0.34929100
8
Properties=species:S:1:pos:R:3:mulliken:R:1:hirshfeld:R:1 dipole_vector="-0.50379 0.0214 1.04173" energy=-880.4964519972741 pbc="F F F"
H        0.14808357      -0.90981844      -2.60488014      -0.48330800      -0.34468600
Li      -0.24329427      -0.60794971      -0.83559813       0.47091600       0.23677100
H       -0.75673932      -0.86815989       0.84866034      -0.61234300      -0.27776100
Li      -0.73756824      -0.05648512       2.70822282       0.59238400       0.43519600
Li       0.46925806       0.41838039      -2.54148820       0.55028100       0.33005200
H        0.31660229       1.12152920      -1.23300283      -0.53610600      -0.28083500
Li       0.47814120       0.23063135       0.76233249       0.51878900       0.24086600
H        0.52244527       0.76263595       2.34569616      -0.50061300      -0.33949000
8
Properties=species:S:1:pos:R:3:mulliken:R:1:hirshfeld:R:1 dipole_vector="-0.6794 -0.07495 0.89019" energy=-880.8686884947311 pbc="F F F"
H        0.10264164      -0.96619762      -2.53847432      -0.47824500      -0.33906700
Li      -0.27735066      -0.63845726      -0.81385003       0.50775800       0.22842500
H       -0.72835969      -0.84923374       0.81377078      -0.63560400      -0.28234900
Li      -0.79119957      -0.04921928       2.70158736       0.57665800       0.44101100
Li       0.49607105       0.41510661      -2.52731986       0.49810200       0.33514300
H        0.36346719       1.21067004      -1.12680712      -0.50868000      -0.26861000
Li       0.51930665       0.24615616       0.71915309       0.51960600       0.21484000
H        0.62833945       0.78661800       2.30367362      -0.47959500      -0.32938700
8
Properties=species:S:1:pos:R:3:mulliken:R:1:hirshfeld:R:1 dipole_vector="-0.84861 -0.13342 0.6813" energy=-881.0301389557034 pbc="F F F"
H        0.04758022      -1.05754974      -2.46838805      -0.46488400      -0.32963400
Li      -0.31435545      -0.67148728      -0.79591318       0.54457800       0.21856900
H       -0.70732395      -0.83559309       0.78667916      -0.65449600      -0.28538600
Li      -0.84458542      -0.04254479       2.69359029       0.56638100       0.44579100
Li       0.52496843       0.41695608      -2.51588225       0.44906800       0.34459400
H        0.41060676       1.29336870      -1.00024027      -0.48374300      -0.25983300
Li       0.56331602       0.26597223       0.67802057       0.50389500       0.18744200
H        0.73560066       0.81392095       2.27012465      -0.46079800      -0.32160100
8
Properties=species:S:1:pos:R:3:mulliken:R:1:hirshfeld:R:1 dipole_vector="-1.0007 -0.15406 0.43407" energy=-880.959676603159 pbc="F F F"
H       -0.01165817      -1.16457354      -2.39651124      -0.44889800      -0.31944800
Li      -0.35409852      -0.70653045      -0.78175499       0.57205900       0.20914300
H       -0.69460828      -0.82636379       0.77282203      -0.66720400      -0.28640800
Li      -0.89633074      -0.03582725       2.68369535       0.56129600       0.44906500
Li       0.55513008       0.42192064      -2.50572566       0.41539800       0.35801900
H        0.45755126       1.36224921      -0.86772760      -0.46243100      -0.25546900
Li       0.60998255       0.28975598       0.63924185       0.47421900       0.16215500
H        0.83611334       0.83992490       2.24730117      -0.44443800      -0.31706500
8
Properties=species:S:1:pos:R:3:mulliken:R:1:hirshfeld:R:1 dipole_vector="-0.32154 0.72193 -0.33001" energy=-878.4243445455273 pbc="F F F"
H        0.11002780      -1.30147544      -3.70880854      -0.43114400      -0.34515900
Li      -0.01907649      -1.20738976      -1.23928640       0.49099400       0.22915800
H       -0.05119955      -1.32988466       1.31074978      -0.52851800      -0.29728800
Li      -0.06353291      -1.15826208       3.71132270       0.45954300       0.35622500
Li       0.03131348       1.23133929      -3.73226642       0.50877300       0.41532900
H        0.06704089       0.97163390      -1.24054719      -0.56040400      -0.29044700
Li       0.01507466       1.20271831       1.23879040       0.49661600       0.27483900
H        0.12351135       1.18875809       3.78621669      -0.43586000      -0.34263700
8
Properties=species:S:1:pos:R:3:mulliken:R:1:hirshfeld:R:1 dipole_vector="-1.12968 -0.14496 0.16865" energy=-880.7393481437836 pbc="F F F"
H       -0.06954749      -1.27239083      -2.32647210      -0.43280700      -0.31099600
Li      -0.39640275      -0.74319933      -0.77096982       0.58482600       0.20176400
H       -0.69020389      -0.81981987       0.77688265      -0.67303600      -0.28544000
Li      -0.94560089      -0.02879873       2.67159358       0.56062200       0.45030100
Li       0.58584736       0.42837143      -2.49581129       0.39956900       0.37399800
H        0.50346168       1.41409765      -0.74161377      -0.44440600      -0.25533600
Li       0.65897959       0.31690022       0.60327695       0.43542000       0.14128700
H        0.92534354       0.86212230       2.23550815      -0.43018800      -0.31554700
8
Properties=species:S:1:pos:R:3:mulliken:R:1:hirshfeld:R:1 dipole_vector="-1.23277 -0.11712 -0.09487" energy=-880.463212202477 pbc="F F F"
H       -0.12174766      -1.37204291      -2.26249956      -0.41699800      -0.30541500
Li      -0.44114339      -0.78117819      -0.76274354       0.58043400       0.19735200
H       -0.69332450      -0.81385624       0.80104636      -0.67274800      -0.28287500
Li      -0.99187139      -0.02135237       2.65712964       0.56337200       0.44922400
Li       0.61663514       0.43530864      -2.48541424       0.39850400       0.39031800
H        0.54728753       1.44947413      -0.63314626      -0.42943600      -0.25836700
Li       0.70991714       0.34650697       0.57079633       0.39545700       0.12616300
H        1.00077049       0.87904568       2.23389402      -0.41858500      -0.31637200
8
Properties=species:S:1:pos:R:3:mulliken:R:1:hirshfeld:R:1 dipole_vector="-1.31044 -0.08207 -0.33714" energy=-880.2019229020949 pbc="F F F"
H       -0.16519080      -1.45898729      -2.20853751      -0.40188600      -0.30256500
Li      -0.48825115      -0.82019813      -0.75594538       0.56130700       0.19626400
H       -0.70279593      -0.80653223       0.84408225      -0.66820200      -0.27960400