120
Properties=species:S:1:pos:R:3:hirshfeld:R:1:forces:R:3 dipole_vector="0.5701206491631916 -0.06693615518078327 1.3340944578375544" energy=-3070024.53301196 pbc="F F F"
Zn       4.03027368       3.94374082      -0.76356619       0.38073531       0.22013400      -0.52568500      -0.12789700
Zn       4.66893126       1.58464137       1.12233107       0.36942691      -0.10643000       0.72740400      -0.55813700
Zn       6.19539904       1.68334632      -1.44450981       0.38520432       0.00200368      -0.22186400      -0.55585100
O        5.52894028       2.85425907      -0.19557874      -0.38532125      -0.52518800      -0.04634270       0.77631100
O        4.56727150      -2.55830226      -0.57928104      -0.35231710       0.27488400       0.06034800       0.31385100
O        5.09345512      -0.20942550       1.42265165      -0.37192739      -0.10333200      -1.03709000       0.90477800
O        6.82222529      -0.16494618      -1.31303768      -0.39070246      -0.00993380      -0.32140400       0.30623600
Zn       5.85109267      -1.18450941      -0.00618903       0.39736454       0.18229800       0.28693500      -0.84891000
O        3.37319390       3.67791151      -2.51832274      -0.38182235      -0.44978800       0.48554500      -0.46154200
O        2.51705900       1.00404784      -4.04730715      -0.36150020       0.72189900       0.05292450      -0.01904570
O        5.69439562       1.44332715      -3.35581033      -0.40237671       0.78991600      -0.26667000       0.53700900
Zn       4.02688922       2.18356618      -3.49248780       0.37483802      -0.53005700      -0.23038200      -0.22747200
Zn       4.03426179      -3.01091292      -2.41969380       0.37423815       0.53525600       0.72697300       0.17121500
Zn       2.92025591      -0.98736808      -4.04444348       0.36496585       0.53842400       0.64393900       0.19311100
Zn       5.96769413      -0.49311262      -2.98540349       0.39645244      -0.99228800      -0.26199900      -0.63011400
O        4.72332248      -1.76202130      -3.72518317      -0.39816360       0.09606120       0.37921600       0.09670990
O        0.37482652       4.77010739      -1.68285775      -0.33563319       0.84129400       0.14287700       0.77151300
O       -2.51176132       5.05091917      -0.45681876      -0.36832632       0.32803500       0.48890800      -0.25017900
O       -1.91066391       5.49909729      -3.77257287      -0.40648451      -0.06328230       0.24056300       0.42869000
Zn      -1.37746627       5.46020493      -1.93295900       0.38293484      -1.06596000       0.10581600      -0.94851500
Zn      -4.41213963       1.38221670      -2.77035622       0.38678727       0.14984100       0.62461700      -0.02002810
Zn      -3.55723000       3.53321886      -0.83714323       0.35062107      -0.62000200      -0.71148600      -0.40485900
Zn      -3.28218204       4.04844395      -3.94005390       0.37274251      -0.55854200      -0.11736600       1.13995000
O       -4.48778874       3.33330981      -2.58744012      -0.39712868       0.65920300      -0.04719900      -0.52594200
Zn       1.67684374       4.39200375      -3.07999461       0.40287047       0.28869500      -0.57689200      -0.02309410
Zn       0.85948141       1.94957102      -4.63017115       0.36423810       0.49399600       0.50884800       0.29487800
Zn      -0.72633893       4.58637791      -4.98469759       0.39952964      -1.59607000      -0.48452200       0.45475000
O        0.96557052       3.97037544      -4.80056521      -0.38159054       0.96214200      -0.69236000       0.04916590
O       -3.06327452       0.52777659      -3.92021194      -0.34146749      -0.06080730      -0.12063200      -0.03645530
O       -0.20330072       0.74487959      -5.61798070      -0.36816351      -0.56609100       0.25592700      -0.45179700
O       -2.29536894       3.25632605      -5.28409432      -0.41871357       0.86427700      -0.72622600      -0.95797100
Zn      -2.00865235       1.30918187      -5.33363494       0.40025136       0.00754927       1.44045000       0.14708500
O        0.26258049      -0.61552147       5.73674434      -0.37385223      -0.13990600      -0.89609800       0.26996700
O        2.86526522      -0.51213255       3.88180367      -0.34626524       0.41394000       0.39926700      -0.25612600
O        2.38628097      -3.22249956       5.50706904      -0.39566691      -0.75108300       0.34989200       0.43736500
Zn       1.93886755      -1.35810806       5.29019277       0.38264513       0.03205280      -0.97074000       0.41083500
Zn       3.83191192      -3.55128277       0.95769488       0.35578427      -0.84631300      -0.70992400      -0.97321800
Zn       4.19512370      -1.36276363       2.76518380       0.39823998      -0.06515210       0.18466100      -0.39013300
Zn       3.25566561      -4.06858705       4.08129779       0.39070466       0.24283000      -0.22421800      -0.81710000
O        4.33504350      -3.29309853       2.73066258      -0.38400831       0.56068700       0.13609700       0.88806400
Zn      -1.15317867      -1.91523867       5.40422919       0.40345293      -0.19680300       0.66425100      -0.40131400
Zn      -1.31838256      -3.83284306       2.89626015       0.36038728       0.49140200      -0.10238800      -0.17795000
Zn       0.78538365      -4.25823696       4.93987768       0.39346481      -0.24061200      -0.07034480      -0.26150500
O       -1.05437749      -3.71713640       4.81565601      -0.37753306       0.82405400      -0.32646800       0.43544800
O        2.61590768      -5.09365970       0.36690445      -0.38992041       0.56626300       0.46685600      -0.19353600
O       -0.22720505      -4.78828390       1.53586651      -0.35926999      -0.96449200       0.25830700      -0.36687100
O        1.82787104      -5.46590870       3.77120297      -0.39887370       0.36439500       0.66803100       0.16640600
Zn       1.57546641      -5.31547526       1.90278279       0.36997737       0.21278700      -0.45246100       0.57018800
O        2.91728713       4.83699820       0.43444495      -0.38114146       0.36304700       0.18213300       0.49209900
O        3.50174552       2.41760212       2.45089687      -0.35321431       0.19556200       0.26702200      -0.42783800
O        2.35248636       5.26024371       3.68617273      -0.41238527      -0.33640200       0.08598190      -0.04059180
Zn       3.26290049       4.34239585       2.28300036       0.40293215      -0.82039600       0.20470300       0.16742100
Zn       0.17637735       1.19089531       5.36512557       0.39052195      -0.17286500       1.25851000      -0.33837200
Zn       2.66819798       1.48237912       3.92928781       0.36377985      -0.16120400      -0.20525400      -0.46374200
Zn       1.49490886       4.14273691       5.03351110       0.39586200       0.01502460       0.12412800      -0.50705300
O        1.81369092       2.35794309       5.37184265      -0.38775611      -0.50177300      -0.68137600       0.51343800
Zn       1.12772591       5.34037525       0.11184206       0.38727910       0.27248300      -0.73728700      -0.24326800
Zn      -1.51328433       4.96560693       1.12244740       0.36855205      -0.06607200      -0.34230800       0.57288300
Zn       0.49042363       5.96785460       3.26343434       0.42503972       0.54938500      -0.81005000      -0.26104300
O        0.02245902       6.11462791       1.40201753      -0.37949148      -0.55453500       0.24853300       0.87349500
O       -1.50930692       2.04558397       4.85783021      -0.37965760       0.27554000       0.14399300       0.18179000
O       -2.33936059       3.80842743       2.48131138      -0.36046304       0.74726900       0.42752000       0.79204100
O       -0.23302045       5.05157740       4.87798628      -0.38911358       0.24661000       0.80761900      -0.44408200
Zn      -1.60453556       3.93756066       4.31854155       0.39501994       0.08710710      -0.80634900      -0.45094700
O       -4.14357489      -2.35626974      -2.83296699      -0.38458809       0.03274540      -1.24238000       0.46112400
O       -2.72805555      -4.18293541      -0.58302613      -0.34388233       0.54636100      -0.80643400      -0.16956000
O       -2.45590490      -5.01389864      -3.69420269      -0.40265506      -0.19600100       0.04569290      -0.01998030
Zn      -3.54052774      -4.25630884      -2.30947654       0.41053563       0.49966000       0.80582600      -1.30024000
Zn       2.05374308      -5.26447091      -1.46659771       0.40792625      -0.79039500      -0.14809300       0.38810300
Zn      -0.78315556      -5.08398626      -0.32584700       0.37522462      -0.12156800       0.15355700      -0.41480100
Zn      -0.70098993      -5.67884950      -3.19419071       0.37216009       0.00380622       0.45566400      -0.61797000
O        0.23100154      -6.11368765      -1.66296352      -0.39039233       0.22820500       0.12464800       0.71025500
Zn      -2.97965824      -1.44714397      -3.99664643       0.36656989       0.92456300      -0.14682200      -0.41602700
Zn      -0.12708351      -1.08121952      -5.41057306       0.39892535       0.24441500      -0.82259900       0.40121300
Zn      -1.62263459      -3.87278947      -5.09914872       0.39631640       0.44402800      -0.01560610       0.58359600
O       -1.73715985      -2.05735532      -5.57679114      -0.39707564      -1.04908000      -0.25621200       0.46727600
O        2.87639376      -4.36647334      -2.90501867      -0.37361309      -0.49238300      -0.41475100      -0.58908100
O        1.37076592      -2.08707518      -4.54974616      -0.33952343      -0.21654000       1.26729000      -0.20960100
O        0.06775865      -4.84080035      -4.82298341      -0.41412396       0.19793400      -0.13546400       0.18262700
Zn       1.69404761      -3.91044166      -4.41889129       0.40194523      -0.52984300      -1.42472000       0.44628900
Zn      -3.76303513       2.56328272       2.40481759       0.37227338      -0.60196600      -0.64199200      -0.22766400
Zn      -3.00452861       0.86307279       4.71385240       0.38128018       0.26494900      -0.41559800      -0.29800000
Zn      -5.76924222       0.32401488       3.25071337       0.38741310      -0.05675410       0.27805200      -0.68598100
O       -4.57053114       1.56518295       3.87823771      -0.38658198       0.12317200       0.73996700       0.19633500
O       -3.08911762      -3.09541601       2.51865152      -0.35387822      -0.20676100       0.04783650      -0.43280700
O       -2.85167181      -1.05269042       5.03298433      -0.38770846       0.04772400      -0.07715480       0.03388350
O       -5.75130637      -1.56426628       3.33936173      -0.39147860       0.14238700      -1.01983000       0.63185500
Zn      -4.03308389      -2.07559997       3.94458158       0.39655327      -0.04621720       0.24720600      -0.24681600
O       -4.40624537       2.36392274       0.55454713      -0.35909418       0.20650600       0.09958980      -0.02490250
O       -5.44720432       0.35522241      -1.58633668      -0.38379135       0.07806430      -1.05146000      -0.37804500
O       -6.51195714       0.17401032       1.46616873      -0.41260053      -0.48264000      -0.29644100       0.08466160
Zn      -5.87950442       1.17212100       0.03189355       0.38194557       0.32103500      -0.05035730       0.54831100
Zn      -3.86123532      -3.61746344       0.77082112       0.39909261      -0.66663600       1.14910000       0.69868700
Zn      -5.04640731      -1.61329335      -1.31890355       0.37644008       0.14449000       1.26506000      -0.44560800
Zn      -6.16922695      -1.80520323       1.48647873       0.39626261       0.10671000       0.91125400       0.10927300
O       -5.56103203      -2.80413885       0.04640833      -0.38197048       0.20470700      -0.77807100       0.60957000
O        2.69621205       0.97129236      -0.26833390      -0.37739057       0.64772400      -0.02266090       0.02502970
Zn       3.00730422      -1.05476227      -0.21063083       0.31755790       0.27701600       1.13901000      -1.00430000
Zn       1.87016053       0.86579965      -2.05670063       0.32247535       0.74032500      -0.25912300       0.32575800
O        2.27484915      -1.09136404      -2.01782034      -0.35351913      -0.39502800      -0.61931800      -0.48313500
Zn      -0.29398060       2.83815810      -1.12365200       0.34215155      -0.25659200      -0.05086730       0.71164100
O       -2.11055972       1.90206616      -1.18683124      -0.35752916       0.17392100       0.23035600      -0.45204000
O        0.26670454       1.67546213      -2.57466915      -0.34590870      -0.67801200       0.38363400      -0.43955000
Zn      -1.42827577       0.59425925      -2.53672512       0.34248442      -0.09387350       0.28373000       0.11553600
Zn       1.13304074      -0.78142164       2.51620491       0.34855215       0.80456700      -0.39426800      -0.07682100
O        2.23462736      -1.99241279       1.15400075      -0.35524134      -0.58192300      -0.42138100       1.23571000
O       -0.24593709      -2.03811648       2.29336238      -0.35347647      -1.06181000      -0.23706400      -0.20038400
Zn       0.56406609      -2.88776752       0.61630878       0.33409394       0.38240300       0.14783200       0.81043900
Zn       1.75559258       1.88508890       1.09003079       0.31817742       0.32425500       0.08695060       0.03478180
O        0.87451948       1.05502700       2.66166253      -0.35309173       0.20399100       0.29005100       0.68965400
O        0.16717221       2.90299243       0.80949976      -0.37658484      -0.51522000       0.84322600      -0.59313500
Zn      -0.85574203       1.88720281       2.21643812       0.34179500       1.00872000       1.04914000      -0.07171950
Zn      -1.99415469      -2.20347880      -1.06652626       0.32213515       1.08112000      -0.90513000      -0.98180600
O       -0.14428328      -3.19054577      -1.09123644      -0.35019910       0.01989050      -0.19970800       0.27383500
O       -1.20505646      -1.31839414      -2.61555303      -0.35615778      -0.17424600       0.54979100      -0.64474300
Zn       0.61538716      -2.03311216      -2.49428219       0.35191240       0.08274520       0.19481400      -0.00254807
O       -2.25224106       0.74708330       2.06805412      -0.35775333      -1.16228000      -1.24533000       0.08024680
Zn      -1.98037897      -1.25849501       1.86202111       0.35446733      -0.35936700       0.43339900      -0.06427070
Zn      -2.86147155       0.84044630       0.18449833       0.33027352      -0.46747400       0.02282510       0.18467500
O       -2.91312098      -1.12758229       0.06342784      -0.36331857      -0.65649000       0.52994200       1.15592000
96
Properties=species:S:1:pos:R:3:hirshfeld:R:1:forces:R:3 dipole_vector="-0.3596204065670009 -0.05123013390792839 -1.7269987109564677" energy=-2456015.27124261 pbc="F F F"
Zn       3.72940363       3.27691330      -0.83191022       0.40917637      -0.19554700       0.70716800       0.31249300
Zn       1.97092592       5.65522760      -2.18196907       0.40164562       0.47364500      -0.24353500       1.25190000
O        3.10970589       5.09826919      -0.72088881      -0.38556887       0.36602000      -0.06332880      -1.45441000
O        1.47617917       1.55291923      -4.90996778      -0.37640754      -0.19956600       1.00680000       0.33567500
O        2.85587704       2.11549551      -2.11744273      -0.33458441       0.35268000       0.49918600      -0.22651100
O        1.95871845       4.77354456      -3.88223295      -0.38231721       0.35122300       0.32206500      -0.54739600
Zn       2.31817885       2.99693586      -3.89351245       0.40642706      -0.17091200      -1.12416000      -0.28420900
O       -2.29298866       4.15554462      -0.85550814      -0.37655924      -0.93087100       0.07329530       0.35856500
O        0.08327349       5.93891248      -2.17042009      -0.39911238      -0.26259100      -0.02504830       0.16594800
Zn      -0.78484037       5.16954337      -0.58601226       0.39186557       1.56021000       0.82168200       0.01713900
Zn      -0.46894495       1.72691580      -4.57175366       0.36419133       0.49189700      -0.23000600      -0.10471800
Zn      -1.90299670       2.88994613      -2.19156135       0.34576753      -0.37204900       0.50743700      -0.79151800
Zn       0.02722378       4.74870789      -3.68569465       0.38121280      -0.81701200      -0.08483500       0.00009605
O       -1.19073902       3.38074374      -4.07228513      -0.38925353      -0.38982100       0.39358100       0.52660600
O        5.18763560      -0.28254478      -0.66579073      -0.38042801      -0.70670100       0.64768200      -0.49835500
O        5.08443872      -3.09168199      -2.07300576      -0.39988047      -0.10001600       0.03369490      -0.15012100
Zn       4.72267120      -2.09981399      -0.44548194       0.37013039       0.29734800      -0.73524700       0.19111600
Zn       2.10118393      -0.11529820      -4.50341820       0.37042216       0.91020600      -0.08353220       0.03545170
Zn       3.76267554       0.31456540      -2.03537203       0.34144464       0.90332200      -0.78945300       0.18912200
Zn       4.41385342      -2.28041462      -3.69619731       0.41230203      -0.31037900       0.16599800       0.71555400
O        3.91547310      -0.42645462      -3.86961289      -0.38841646      -0.20888200      -0.54290500       0.15055600
Zn       1.17704313      -4.80900045      -0.67013847       0.36852573      -0.36083400      -0.39774500      -0.06627660
Zn       3.86570404      -4.60775060      -2.25546428       0.40021857      -0.05833760       0.20755700       1.11494000
O        2.95663074      -5.30426749      -0.73393156      -0.39020828       0.77947300      -0.30012500       0.04194090
O        1.00820016      -1.56776654      -4.01467975      -0.34742459      -1.06674000      -0.60904100       0.21662800
O        0.68434460      -3.62879394      -2.10758816      -0.34314816       0.12769700      -0.01433920      -0.51982400
O        3.32828409      -4.01531435      -3.97234387      -0.39204575       0.25523200       0.21780200      -0.92210500
Zn       1.61317376      -3.39613240      -3.90952101       0.40353060      -0.11001400       0.11792800       0.55855300
O       -2.65011517      -4.20189112      -0.85668490      -0.37954213       0.58314000      -0.30722400       0.75047900
O       -5.26316141      -2.80793454      -2.27609705      -0.40402255       0.49364800      -0.44445000      -0.29926800
Zn      -4.18713431      -3.14231857      -0.69608093       0.36583008      -0.80474800       0.23898600      -0.31030700
Zn      -1.01722469      -1.54778166      -4.24827356       0.38308111       0.83480800       1.30927000      -0.52079800
Zn      -1.30519071      -3.41023377      -1.98118260       0.34051625      -0.42242700       0.31830800      -0.08990200
Zn      -4.00085436      -2.64788127      -3.75847083       0.42102372       0.05473170       0.87726400       0.78334300
O       -2.09575326      -2.89351935      -3.74567827      -0.38339145      -0.52320700      -1.03444000       0.27560100
Zn      -4.79157050       1.58429776      -0.90499878       0.40484831      -1.40034000      -0.49553200       0.53983400
Zn      -5.66361799      -0.90944876      -2.47527427       0.36339285      -0.02453310      -0.07779340       0.49672700
O       -6.11650727       0.16996109      -1.03403572      -0.39280377      -0.19195200       0.20753500       0.70159000
O       -1.58506545       0.21643530      -4.76594711      -0.37134695       0.20890700      -0.23626400       0.03386070
O       -3.31153582       1.17279857      -1.88537640      -0.34010329       1.12854000       0.44902100      -0.27854900
O       -4.58587024      -0.68374412      -3.98092481      -0.41562140       0.63160200      -0.23867700      -0.62996900
Zn      -3.06829149       0.47033903      -3.64403087       0.37896839      -0.89754700      -0.76171600      -0.53309200
Zn       1.13349112       1.31884125      -1.55433165       0.35993935      -1.01462000       0.40459400       0.11314200
O       -0.71358644       1.50953200      -1.83870058      -0.37242529       1.70294000      -1.41532000       0.45745400
O        2.08142138      -0.24855139      -0.90937255      -0.34199541       0.06354620      -0.06114000      -0.17201200
Zn       1.10239970      -1.65559012      -1.73401850       0.35904812      -0.71648900      -0.25830400       0.04212480
O       -0.74497047      -1.65737259      -0.95759755      -0.35936501      -0.12874700       0.22766100      -0.79489200
Zn      -1.82991337       0.12240402      -0.85112609       0.35900072       0.43268500       0.07639320      -0.50485800
O       -1.61852325      -3.00341503       2.09274903      -0.33012742      -0.59020400       0.19058600      -0.06631700
O       -0.51209786      -1.78609820       4.95466992      -0.36631369      -0.45379500       0.28345600      -0.09370510
O        0.36206881      -4.84053806       3.90006056      -0.40839293      -0.67251100       0.25318700       0.11459200
Zn      -0.72801609      -3.23242144       3.80202433       0.38353038       0.58174200      -1.12567000       0.10308400
Zn       3.08596328      -1.91495401       2.15883022       0.34275743       0.48012500      -0.30069200       0.28061600
Zn       1.22555734      -1.23056604       4.24845923       0.34151279      -0.12637400       0.82028400       0.16789800
Zn       2.20705281      -4.24753422       4.00977555       0.40647377       0.01543410       0.73362900      -0.16574400
O        2.67141307      -2.42157150       4.06770163      -0.39218199       0.59607000      -0.65931100      -0.07269590
Zn      -1.63610496      -4.38214257       0.81259764       0.38968846      -0.27272700      -0.44398400      -0.99330100
Zn       0.85644982      -5.81092461       2.30314768       0.40308371      -0.75242200       0.53012300      -0.37940300
O       -0.05235976      -5.42439767       0.62683136      -0.37747926       0.24846600      -0.30794900       0.39307400
O        4.16137639      -3.14810337       1.07829348      -0.38784280       0.02879420       1.25860000      -0.12550900
O        2.70461457      -5.58582479       2.66637858      -0.37964665       0.26047500      -0.68131300       0.49787900
Zn       3.41963661      -4.87083070       1.16176051       0.38531580       0.51626500       0.28380900      -1.14822000
O       -4.82543736      -2.17631772       0.82289687      -0.38808663       0.11054500      -0.07607170      -0.13226300
O       -6.46241427       0.20011529       2.32880945      -0.39174999      -0.08504320       1.02318000      -0.03033350
Zn      -6.06864399      -0.68501071       0.73981333       0.39752303       0.38153000      -0.18262900      -0.74014800
Zn      -3.25831478       3.47542087       0.66988961       0.38703448       0.17280100       0.39267800      -0.82482900
Zn      -5.66276225       2.12678977       2.15076676       0.41951630      -0.58715400      -1.42736000       1.35046000
O       -4.99431584       2.74492768       0.60603562      -0.36170741       0.37456700       0.71710400      -1.21662000
Zn      -3.31700599      -1.79421323       1.90901290       0.34250506       0.34936100       0.24685600       0.05480270
Zn      -1.92757793      -0.64367969       4.44404930       0.40071350      -0.02342410       0.09592210      -0.08539300
Zn      -5.09878337       0.00060419       3.61004028       0.39388331       0.60656600      -0.72278300       0.14114200
O       -3.61930596      -1.15226675       3.70699597      -0.38799220      -0.05807840       0.06504550       0.44020900
O       -2.00685626       3.13554010       2.00676581      -0.33906867      -0.53024200      -0.03755320       0.83288200
O       -1.56982180       1.22465484       3.97221770      -0.34694928      -0.31340800      -0.17809000      -0.06296610
O       -4.79797292       1.89244119       3.92077715      -0.38637674      -0.06175520       1.07046000      -0.51022400
Zn      -3.04854370       2.45762168       3.58400434       0.41778009       0.38037300      -0.48564800      -0.05406210
Zn       0.16771208       2.00555810       4.21202780       0.35100728       0.68496100      -0.77647700       0.40428600
Zn      -0.14696786       3.84456055       1.86652808       0.34060269       0.65264000      -0.16073000       1.10708000
Zn       2.31842391       4.19957498       3.93047910       0.39537738      -0.47142000      -0.10096600      -0.38247600
O        0.48496828       3.77761425       3.86904912      -0.39843428       0.01337910       0.88441000      -0.37794700
O        0.52980759       5.30183664       0.89707969      -0.38739161      -1.49729000       0.01514080      -0.61290200
O        3.32478375       5.25333510       2.65103294      -0.39746926       0.00268180       0.29025700      -1.04139000
Zn       2.39669519       5.39559243       0.95905599       0.37508352       0.23742300       0.19374800       1.33754000
O        1.52094779       0.67835762       4.51487371      -0.39072833      -0.26844200      -0.30617300      -0.02504920
O        3.45477445       0.18495762       2.04764055      -0.34136707       0.59523100      -0.32715800      -0.81077000
O        3.75724173       2.93805707       3.97883345      -0.40028414       0.69016100      -0.59072400      -0.33092100
Zn       3.07671651       1.20586053       3.57735239       0.36330796       0.00164629       0.70419100       0.93827200
Zn       4.68873166       0.92052918       0.69408210       0.37323523       0.04742650      -1.05481000       0.22694500
Zn       4.48596501       3.71367675       2.30561306       0.41053056      -0.78781200      -0.00143235       0.54622200
O        4.76695524       2.76551159       0.69100131      -0.36875439       0.15491800       0.66341600      -0.25822000
Zn      -0.42048899      -1.85960377       0.92609136       0.32789735       0.25694400       0.81689100       0.75486800
O        1.22403920      -1.37140386       1.88645384      -0.37266505      -1.39079000       0.15539300      -0.56893700
O       -2.00728695      -0.31323147       1.00746999      -0.36559071      -0.27864500      -0.05580700       0.46411700
Zn      -1.19235362       1.18574004       1.82880047       0.31980786      -0.40145500      -0.18612300       0.37302300
O        0.47832174       1.93748043       1.35847836      -0.38615500       0.55320200      -0.09828430      -0.39054900
Zn       1.65449069       0.45658180       1.15756133       0.32772453       0.00764742      -0.65308300       0.29406500
78
Properties=species:S:1:pos:R:3:hirshfeld:R:1:forces:R:3 dipole_vector="-1.5115109001985836 -0.4103755432531956 0.1587674370766766" energy=-1995510.85555076 pbc="F F F"
Zn       1.56628701      -1.04579710      -0.85701347       0.32706334       0.45761900      -0.62127400       0.18171200
O        1.81869929       0.68546657      -0.59542207      -0.39361650      -0.24898200       1.46312000       0.10610400
O       -1.50453555       1.06258153      -1.17322601      -0.36774474      -0.11533800      -0.03558150       0.35141900
Zn       0.15850959       1.72741427      -0.88128359       0.36113436       0.88791300      -0.52624200       0.23822700
O       -0.11640408      -1.84531032      -0.96294823      -0.38183437      -1.03801000      -0.47956800       0.28451400
Zn      -1.66695437      -0.82336189      -0.82534374       0.35914765       1.20156000      -0.63905300      -0.25468900
O       -2.53902801      -5.30751934      -1.20412624      -0.41529498       0.24211900       0.34355400      -0.45156900
Zn      -4.58800565      -1.61193593       0.38587263       0.41245459      -0.09083100      -0.25852900       0.20837000
Zn      -4.08101506      -4.11256734      -1.14752082       0.37926353       0.91774300      -0.30915300      -0.91780900
Zn       0.54594102      -3.77497880      -1.13281051       0.36556769       0.25208400       0.39178000      -0.22909900
Zn      -0.15371292      -2.01689159      -3.54716029       0.36886291      -0.11818200       0.34343400       0.23507800
Zn      -1.91240136      -4.34580601      -2.89224296       0.39582503      -0.47617400      -0.02093140       1.02262000
O       -0.10199154      -3.86533171      -2.99328179      -0.38538074       0.00059809      -0.22302200      -0.17255700
O       -3.55505309      -0.93207599      -1.11753380      -0.33299608      -0.63162300       0.42188900      -0.12502400
O       -1.71881553      -0.88696332      -3.79134540      -0.38004160      -0.04777550      -0.03412710       0.05294710
O       -3.63705630      -3.40043080      -2.95072958      -0.40451664      -0.04923720       0.00662050       0.07760230
Zn      -3.34887529      -1.51282080      -3.07174828       0.41991812       0.47292600      -1.09730000       0.12395200
Zn       5.64927684      -1.62169418      -1.34328045       0.38659729       0.56749100       0.62951500       1.33623000
O        5.99774939       0.43385691      -1.49590505      -0.40574967       0.35728000      -0.58108600       0.73694400
O        2.55513549      -2.74978421      -1.06789272      -0.35788046      -0.53266500      -0.75519300       0.19347400
O        1.56384384      -1.18492464      -3.81871187      -0.37657668      -0.18741300      -0.10951100       0.00267468
O        4.71553675      -1.68853643      -2.87194401      -0.41065268      -0.73302300       0.38742700      -1.63890000
Zn       2.88976374      -2.20282935      -2.93861460       0.39328842       0.87773200       0.50734500      -0.03173070
Zn       2.96598899       2.12896363      -1.52397605       0.33770750       0.62987500       0.00851786       0.77861000
Zn       1.67905866       0.75042942      -3.91663722       0.39724205       0.51224200      -0.45152900       0.19288500