24
Properties=species:S:1:pos:R:3:forces:R:3 energy=-16630.55740285517 pbc="F F F"
O       -1.54468739      -1.56514304       0.63351883      -0.00707552      -0.16411800      -0.42247501
H       -1.88043916      -1.00888889      -0.08146416       0.16407332      -0.05539843       0.23076342
H       -0.74550187      -1.98292690       0.28675867      -0.14411744       0.22093697       0.13328430
O       -0.87132537       2.08928329       0.33580352       0.33769154       0.09373096       0.28690001
H        0.03299320       2.13750154      -0.00089489      -0.26239508      -0.13835637       0.03307663
H       -0.81631362       1.59393436       1.16342152      -0.02703741       0.02488592      -0.28523435
O        0.96675241      -2.32966774      -0.48368053       0.11700166      -0.06776271      -0.52550797
H        0.84456385      -1.66198986      -1.18257189       0.04958517      -0.43295519       0.57004354
H        1.33577097      -3.10249185      -0.90194973      -0.10948406       0.26779502       0.07892094
O       -0.62435090       0.21205456       2.48216189      -0.35270905      -0.38342875       0.15578860
H       -1.01708519      -0.46602123       1.90324391       0.34214449       0.51917359       0.35475580
H       -1.00797808       0.09271962       3.34643639       0.08255458      -0.00341227      -0.28823915
O        0.51163471      -0.27460664      -2.21357142      -0.14006209       0.42935539      -0.07540882
H       -0.42417681      -0.06605809      -2.09420936       0.25966457      -0.10807679       0.09990032
H        0.99618042       0.46801454      -1.83006321      -0.13422918      -0.25454875       0.01211350
O       -2.13421261       0.38640053      -1.37540544      -0.19841847       0.50532373       0.06502804
H       -1.76360237       1.06927568      -0.78761120      -0.19672700      -0.55432788      -0.41270564
H       -2.91693091       0.75876743      -1.77173351       0.24752716      -0.06827169       0.15551175
O        1.79181135       1.73121292      -0.62307586       0.44745184      -0.05342773       0.29862980
H        1.93612326       1.05873520       0.06693913      -0.19069827       0.46398887      -0.51341494
H        2.58913792       2.25100452      -0.67275320      -0.22042604      -0.19660718       0.05426674
O        1.90437782      -0.24953383       1.24424900      -0.17504200      -0.35089596       0.21232639
H        1.70057238      -1.05305999       0.74810590      -0.00672719       0.28673695       0.04380235
H        1.13668526      -0.08851688       1.80834545       0.14736701       0.02125840      -0.25453553
24
Properties=species:S:1:pos:R:3:forces:R:3 energy=-16630.559267329518 pbc="F F F"
O        1.82190025       1.31675559      -0.44491932      -0.02879440      -0.11226337      -0.40748764
H        1.04941332       1.60157663      -0.95040552       0.12927420      -0.13909962       0.22594465
H        1.97952795       0.39875990      -0.70146040      -0.13812404       0.20888832       0.15603764
O       -2.04290736      -1.49166966       0.42552664      -0.17859871      -0.23078692      -0.44109978
H       -2.78377319      -2.08392658       0.33198597       0.23950183       0.17865990      -0.03274526
H       -1.65851188      -1.37819380      -0.46238429      -0.22305067      -0.02935578       0.67693516
O       -1.66776800       1.30044752       0.88232931       0.01128092      -0.23868051       0.35451741
H       -0.87759781       1.31589109       1.43799838      -0.13793363      -0.04187386      -0.25754038
H       -1.93406511       0.37320811       0.83047852       0.16576130       0.22939898      -0.08056475
O        1.86694371      -1.49623478      -0.92489145       0.14671009      -0.37987522       0.34638424
H        1.48114574      -1.63352645      -0.04096083       0.22927449       0.16304487      -0.65318325
H        2.53340697      -2.16735025      -1.04249672      -0.21819576       0.18469778       0.09322713
O       -0.75557810      -0.98312157      -1.92709425       0.30812740       0.19291189      -0.22755159
H       -0.76730502      -0.01947612      -1.99510661       0.00000766      -0.25216621       0.15355699
H        0.16280955      -1.22229290      -1.74616149      -0.26707567       0.09622941       0.08224769
O        0.60144585      -1.63408149       1.48968431      -0.28962471       0.15054237       0.27849024
H       -0.33462501      -1.69517488       1.25856861       0.27710555       0.08585392      -0.05160374
H        0.72184229      -0.75249189       1.86608848      -0.02619168      -0.18609332      -0.22718958
O        0.89964580       1.13396269       2.11763724       0.42084601       0.31194693      -0.10341548
H        1.30749547       1.26836663       1.24321374      -0.35232225      -0.14920128       0.59938801
H        1.40297663       1.65189892       2.73956999      -0.11792988      -0.14026279      -0.23760193
O       -0.72368217       1.85394174      -1.61827246      -0.38332184       0.30691739       0.19508092
H       -1.13012934       1.74335343      -0.73986859       0.34571544       0.01377530      -0.62476115
H       -1.15261054       2.59937769      -2.02905920       0.09665472      -0.22237823       0.17678398
24
Properties=species:S:1:pos:R:3:forces:R:3 energy=-16630.42374031458 pbc="F F F"
O       -1.53961744      -1.72035734      -0.43523960       0.10667148       0.03202109      -0.29228843
H       -0.65065234      -1.91053180      -0.75826673      -0.16943772       0.11719331       0.14689346
H       -1.78671627      -0.88026984      -0.84179764       0.10618883      -0.11210196       0.17779936
O        1.25646366      -1.85725610      -1.23929005       0.16140240       0.28072145      -0.58141173
H        1.13594998      -0.96601988      -1.61649685       0.07384589      -0.76312106       0.41896957
H        1.59975399      -2.40851597      -1.93692665      -0.14914220       0.20099035       0.17304703
O        0.80152120       0.67921026      -2.04502659      -0.14528585       0.52829587       0.29820824
H        1.17522134       1.15626450      -1.28860598      -0.11026377      -0.31363111      -0.36050993
H       -0.14916097       0.83630236      -1.99892740       0.21598106      -0.12427829       0.03123407
O       -1.95291482       1.00554093      -1.32696419      -0.30558088       0.32126003       0.04977949
H       -1.76589690       1.38241811      -0.45185881       0.10330796      -0.28498336      -0.29155710
H       -2.71688960       1.46553393      -1.66586618       0.19855716      -0.10976642       0.11094841
O       -0.80152126      -0.67921029       2.04502661       0.14528544      -0.52829273      -0.29820670
H        0.14916100      -0.83630234       1.99892743      -0.21597911       0.12427747      -0.03123433
H       -1.17522136      -1.15626447       1.28860588       0.11026280       0.31363049       0.36050978
O       -1.25646362       1.85725613       1.23928995      -0.16140189      -0.28072366       0.58140283
H       -1.13594998       0.96601983       1.61649675      -0.07384862       0.76312086      -0.41896875
H       -1.59975399       2.40851589       1.93692679       0.14914081      -0.20098783      -0.17304163
O        1.95291485      -1.00554095       1.32696433       0.30559008      -0.32125324      -0.04976206
H        2.71688952      -1.46553390       1.66586633      -0.19856168       0.10976842      -0.11095139
H        1.76589693      -1.38241826       0.45185871      -0.10331007       0.28497755       0.29154677
O        1.53961743       1.72035738       0.43523951      -0.10666886      -0.03201924       0.29228097
H        0.65065230       1.91053196       0.75826688       0.16943468      -0.11719130      -0.14689212
H        1.78671636       0.88026984       0.84179754      -0.10618806       0.11209800      -0.17779874
24
Properties=species:S:1:pos:R:3:forces:R:3 energy=-16630.42297860881 pbc="F F F"
O        1.84281135       1.29059714       0.27527750       0.10318614      -0.33062142      -0.50207786
H        1.46418572       1.32537812      -0.61674167       0.12035474       0.03989273       0.48276266
H        2.06480492       0.36497372       0.42528379      -0.11954546       0.23657941       0.00381305
O       -1.92568135      -1.36047602      -0.30630977      -0.02872118       0.08012134      -0.27306825
H       -2.09353411      -0.42186457      -0.45975430       0.14416984      -0.16444962       0.11097443
H       -1.20365476      -1.59418827      -0.90271720      -0.06697591       0.09720390       0.20438081
O       -2.00308167       1.50331419      -0.53040608      -0.21737990       0.34308176       0.17386372
H       -2.71181023       2.14016956      -0.57958906       0.19368260      -0.15266430       0.03816520
H       -1.51184713       1.69452113       0.28466213      -0.04283139      -0.24046152      -0.34445920
O        1.90534032      -1.58447617       0.67468197      -0.16947777      -0.22695746       0.58316702
H        1.11120439      -1.43528068       1.22065395       0.64144900      -0.09731477      -0.55398854
H        2.51034392      -2.09822137       1.20231849      -0.20498343       0.19903832      -0.10868033
O        0.53800005      -1.78372902      -1.75570136       0.27616869      -0.34260518      -0.06301702
H        0.86442352      -2.49375698      -2.30306571      -0.06312774       0.17707919       0.16388341
H        1.08359480      -1.77648821      -0.95290520      -0.31609962       0.17058854      -0.21795217
O       -0.39133828      -1.01278705       1.98959524      -0.53742005       0.24735027      -0.17494600
H       -1.02892321      -1.24206942       1.29592365       0.38671739       0.05548420       0.30876817
H       -0.45265087      -0.05640942       2.09031517       0.07884782      -0.24447881      -0.06606023
O       -0.37581807       1.87722486       1.71197826       0.57128112       0.29784772       0.03084938
H        0.46806759       1.73755139       1.24363572      -0.77980953       0.07491840       0.33994249
H       -0.21457819       2.53762811       2.37998516       0.01003651      -0.23555189      -0.19355163
O        0.39086179       1.06671351      -2.08861643      -0.22996031      -0.15010163      -0.11059493
H       -0.47711881       1.27249020      -1.71995502       0.22465957      -0.06779131       0.03893761
H        0.42756662       0.10300034      -2.13981443       0.02138181       0.19756224       0.14484480
24
Properties=species:S:1:pos:R:3:forces:R:3 energy=-16630.366628413445 pbc="F F F"
O       -0.14235646      -1.34947844       2.24286121       0.50717389       0.05323295       0.30500829
H       -0.00256648      -1.71540709       3.11159176       0.00010125       0.16155636      -0.25849925
H        0.65588869      -0.83583595       2.02175695      -0.68552460      -0.37252516       0.11036415
O        1.95623208       0.12731295       1.35410541       0.02650458       0.50167060      -0.41367248
H        1.52597142       0.98348825       1.20493027       0.15757192      -0.48324469       0.18179305
H        2.16129542      -0.20777644       0.47426715      -0.10509560       0.01146733       0.19173468
O       -2.07291722      -0.25459040      -1.39209420      -0.07391644      -0.59815866      -0.09065988
H       -2.88400411      -0.61921028      -1.73528725       0.24490860       0.05934487       0.17375547
H       -1.53139173      -1.00547702      -1.08607441      -0.39329680       0.66981042      -0.19329565
O        1.95611454      -0.72394000      -1.41545040       0.21690753       0.08505781      -0.35262045
H        2.64205290      -0.84786434      -2.06702715      -0.18134928       0.06323886       0.16144189
H        1.40405262       0.01038771      -1.72797686       0.03171183      -0.24266289       0.25652932
O        0.11964647       1.27166634      -2.14132148      -0.30738404       0.10651073      -0.35813932
H       -0.07947491       1.87185030      -2.85588318       0.01666795      -0.13076035       0.21767234
H       -0.70623117       0.80592816      -1.92916280       0.41585468       0.10389937       0.13292933
O        0.40271641       2.31415778       0.60998401      -0.42288032      -0.08873078      -0.14843530
H        0.36803211       2.15613156      -0.33864886       0.05168812      -0.01285161       0.18535902
H       -0.42278120       1.94160324       0.95482835       0.39504124       0.10945362      -0.07148233
O       -0.36153513      -2.12986548      -0.46213907       0.35104426      -0.13922165       0.27211067
H       -0.32300162      -2.01114733       0.49706268      -0.04642173       0.11176607      -0.31587275
H        0.49427922      -1.83611257      -0.79862231      -0.25299194       0.03804297       0.06491316
O       -1.84757613       0.79325323       1.33465254      -0.08083688      -0.28362371      -0.04060446
H       -1.38172518       0.05496471       1.74840545       0.00103806       0.20671028      -0.16186762
H       -2.08426797       0.48443048       0.45298585       0.13895934       0.07938024       0.15272657
24
Properties=species:S:1:pos:R:3:forces:R:3 energy=-16630.368406886315 pbc="F F F"
O       -1.65311722       1.72339485      -0.41854232       0.21689514       0.13561274      -0.14506499
H       -0.90704863       1.98695753       0.13295638      -0.13321550      -0.15822570      -0.05536125
H       -1.26373367       1.40636209      -1.24344271      -0.05383227      -0.04240120       0.24634034
O       -2.15608554      -0.71034279       0.87494668       0.10410449       0.44376133       0.09386528
H       -1.47605590      -0.65848842       1.55316424      -0.09298051      -0.06866306      -0.16497012
H       -2.15353493       0.15964204       0.44679332       0.01495405      -0.41303037       0.09441950
O       -0.67110042      -1.88409498      -1.16358679      -0.53922074       0.36203110      -0.02194812
H       -0.60104994      -1.15901139      -1.79621380       0.05121278      -0.14953110       0.22048476
H       -1.31769423      -1.59515979      -0.50134307       0.39792519      -0.17958067      -0.31846324
O        1.95186432       0.68746303      -0.87069124       0.15209742      -0.08586009       0.37302195
H        1.63818295       1.26838860      -0.16527134      -0.06137938      -0.16350613      -0.17484778
H        1.98780485      -0.19459805      -0.48112613      -0.10497213       0.21954261      -0.14103083
O        1.53845020      -1.90017750       0.36255556      -0.27835557      -0.52853920      -0.43092428
H        0.75521215      -1.97778752      -0.21480232       0.74907014       0.15697270       0.62791085
H        2.06291123      -2.68376400       0.22514546      -0.18484942       0.25761761      -0.02868302
O        0.36185021      -0.49333372       2.44334263       0.24275180      -0.33443483       0.25001502
H        0.80678900      -1.03945591       1.77406973      -0.29663478       0.35764752       0.10321910
H        0.44608498      -0.95427229       3.27446061      -0.04577829       0.07083457      -0.23959690
O       -0.17739145       0.54792321      -2.59992403       0.39924684       0.15462641      -0.19749828
H        0.64096623       0.63808625      -2.08129162      -0.54989154      -0.06754756      -0.24658172
H        0.02759643       0.82734001      -3.48806828      -0.00588983      -0.07307251       0.27758537
O        0.67631338       2.03238306       1.29820970       0.11010796       0.14817593       0.38765189
H        0.85860958       2.71549962       1.93890065      -0.07541437      -0.19455549      -0.14170281
H        0.54588732       1.20923069       1.79567546       0.00294628       0.14561691      -0.34005218
24
Properties=species:S:1:pos:R:3:forces:R:3 energy=-16630.36508578035 pbc="F F F"
O        1.64702946       0.06541351      -1.67371844       0.12241188       0.45567536       0.42966459
H        1.99548060       0.12547652      -0.77046405      -0.18768072      -0.15373614      -0.48450093
H        1.03060585       0.80010204      -1.75835024       0.08413848      -0.21621714       0.00855951
O       -1.69256645      -0.07439645       1.85325218      -0.17145398       0.19563381       0.31923935
H       -1.14705956       0.72337989       1.76692153      -0.07414738      -0.31788695      -0.15033663
H       -2.23508466       0.04586391       2.62892605       0.16976533      -0.00613609      -0.18512911
O        0.11042911      -2.17403033      -1.46236156       0.40556877       0.04114881      -0.39688199
H        0.36463314      -2.86458536      -2.06799590      -0.01682643       0.24131800       0.17995281
H        0.72231680      -1.43034079      -1.61022996      -0.49336789      -0.55494566       0.19795650
O       -1.95248098      -0.30374857      -0.98458825      -0.04518287      -0.40789048       0.14178787
H       -2.03919512      -0.31861528      -0.02314300       0.13559732       0.07467004      -0.21288803
H       -1.36287383      -1.03703692      -1.20841740      -0.06402531       0.30727904       0.11403214
O        0.45671111      -1.96871447       1.39329792      -0.23674637      -0.10186454      -0.12166250
H        0.33219606      -2.19250443       0.46215935       0.05850602       0.17413044       0.19278328
H       -0.32319325      -1.45835642       1.64141358       0.19349389       0.00733428      -0.09155930
O        2.16549259       0.23505215       1.05224730      -0.33251452      -0.16789793       0.28931911
H        1.70772034      -0.58988818       1.27419234       0.21170151       0.31280290      -0.17127282
H        1.54123098       0.93525151       1.26708294       0.11426431      -0.11001119      -0.12422492
O       -0.56044394       1.97400502      -1.45180868      -0.51943055      -0.12370977      -0.26472594
H       -1.12028635       1.18019227      -1.36647271       0.50816685       0.59889970      -0.01276471
H       -0.91751707       2.48807506      -2.17070328       0.10650071      -0.23123053       0.17167622
O       -0.07570535       2.14409522       1.27719082      -0.04165691       0.46565361      -0.10783562
H       -0.20417875       2.17875866       0.31481261       0.08146618      -0.25426104       0.36626432
H        0.09235746       3.03831557       1.56453682       0.00160190      -0.23035497      -0.11045825
24
Properties=species:S:1:pos:R:3:forces:R:3 energy=-16630.380503518118 pbc="F F F"
O       -1.40940997      -2.21541843      -0.10307078      -0.42095770       0.04687749      -0.24870200
H       -2.08825346      -2.86184284      -0.27748589       0.17227344       0.22519981       0.02635659
H       -1.70442602      -1.38184556      -0.50945918       0.26097830      -0.49501319       0.29077878
O       -1.23062345       1.85105363       1.12449523       0.08948458       0.39751150       0.08700331
H       -1.51784989       2.63835851       1.58101936       0.11050340      -0.19024087      -0.10290214
H       -0.32121035       2.01451770       0.83046408      -0.33236494      -0.24481856       0.04220296
O        1.24078039      -1.78283748      -1.14079024      -0.24423394      -0.02541567      -0.15960366
H        0.38001541      -2.07957813      -0.81691159       0.19064299       0.17077685       0.02441633
H        1.05706457      -1.00113544      -1.67424307       0.05274536      -0.08578584       0.18323081
O       -0.58900973      -0.77658328       2.25154014      -0.26458386      -0.00906900      -0.10911958
H       -0.90202829      -1.37454566       1.55992671       0.16942527       0.18106605       0.06258318
H       -0.93113586       0.09223309       2.01177188       0.14923435      -0.13742254      -0.00022317
O        0.59796241       0.84546176      -2.26560346       0.22007920       0.32629163      -0.13770624
H        0.93152288       1.32560388      -1.49203504      -0.21810104      -0.31055149      -0.17362296
H        0.97179655       1.26923076      -3.03464882      -0.06066585      -0.09608270       0.21455333
O       -1.95761653       0.26092187      -1.13331555       0.09691759       0.39301886      -0.07031839
H       -1.89065620       0.85044375      -0.37113259       0.05070524      -0.22446133      -0.10372026
H       -1.18582746       0.46283809      -1.67784653      -0.10625630      -0.13847274       0.18409912
O        1.41411451       2.03970376       0.15772982       0.67478304      -0.35911979       0.48380426
H        1.68027357       1.18688765       0.55426129      -0.40487987       0.98283172      -0.51240506
H        2.10989097       2.66216508       0.34838661      -0.22432687      -0.23169210      -0.05212583
O        1.95521596      -0.36604842       1.16320415      -0.41909766      -0.70662708      -0.01212795
H        1.18178228      -0.56638607       1.70964356       0.38119024       0.18309172      -0.22367488
H        1.88916448      -0.95539579       0.39819547       0.08904189       0.34349375       0.31694927
24
Properties=species:S:1:pos:R:3:forces:R:3 energy=-16630.308273545746 pbc="F F F"
O       -3.26430288       0.22889360       0.44347466      -0.10868337      -0.22315033      -0.33217056
H       -4.15533318       0.05402980       0.15392817       0.25115273      -0.08617408       0.05181637
H       -2.68943848      -0.34504670      -0.09185850      -0.33653187       0.40927990       0.30566094
O       -0.10925258       1.28456150      -1.51381718       0.20884414       0.23234742       0.11811376
H        0.83098732       1.25255240      -1.30019986      -0.22348390      -0.10466807       0.00540307
H       -0.52793368       1.71365580      -0.75684225       0.02706791      -0.23619163      -0.10508161
O       -1.37515698      -1.16029130      -0.97419941       0.44263725       0.13673215       0.00832647
H       -0.80740508      -1.55390510      -0.30117618      -0.10102667       0.12634854      -0.18072928
H       -0.91453798      -0.36606950      -1.28592169      -0.29941254      -0.30159027       0.15617139
O        2.14221227      -1.77948920      -1.17506468      -0.24766112      -0.23650670      -0.07320569
H        1.58643472      -2.00445140      -1.92022990       0.13162712      -0.00736657       0.16659336
H        1.62461316      -2.01323280      -0.38906252       0.11168991       0.24100530      -0.20566549
O       -1.34057768       2.08984410       0.97697390      -0.43746768       0.21524156       0.14488964
H       -1.71264898       2.90716590       1.29702938       0.08145204      -0.23423960      -0.09643864
H       -2.08371798       1.47403370       0.85248507       0.48218102       0.10794273      -0.00117314
O        2.57730901       0.86650690      -0.57003915       0.36548646      -0.16412268      -0.20164238
H        3.45487821       1.17010530      -0.78587496      -0.24402501      -0.14513858       0.03738456
H        2.53449857      -0.07035410      -0.82770597      -0.01874859       0.49191357       0.23233410
O        0.46893442      -2.06728140       1.04571522       0.01083278       0.17370199       0.52465241
H        0.33092062      -2.63503800       1.79842175       0.02432850       0.23230099      -0.19773898
H        0.60513532      -1.16667710       1.39136303      -0.07169964      -0.67077587      -0.34203301
O        0.91431939       0.52071220       1.73696793      -0.03139178       0.44214611      -0.08531101
H        1.56203306       0.75861390       1.06077803      -0.19927578      -0.17074512       0.08231393
H        0.14748132       1.08719860       1.58084763       0.19924498      -0.22928334      -0.01297096
24
Properties=species:S:1:pos:R:3:forces:R:3 energy=-16630.298838052255 pbc="F F F"
O        1.75214940       0.55476956       1.90445922       0.39512536      -0.35979738      -0.21122519
H        1.72761041      -0.10768838       1.19103334      -0.03241395       0.55108212       0.48897084
H        2.66950851       0.66606454       2.13911651      -0.25430974      -0.03613017      -0.11719094
O        1.21466237       0.73253493      -2.35420217      -0.07210407      -0.00159398      -0.45624172
H        1.69472700       0.99358921      -3.13547613      -0.17678886      -0.08072977       0.19937518
H        0.39947015       0.29857950      -2.65957715       0.45623761       0.09879958       0.26034483
O       -0.62796969       0.12914388       3.35135720       0.11758550       0.20105303       0.18455282
H       -0.66385919       0.72464685       4.09675239       0.06715892      -0.15319739      -0.12868182
H        0.23803264       0.27288179       2.93924330      -0.28473556      -0.01603844      -0.04716879
O        1.57586604      -1.13557945      -0.22634883      -0.25532589      -0.16040173      -0.35259381
H        0.71300274      -1.56509149      -0.27853818       0.24747533       0.20012270       0.02920321
H        1.61087137      -0.54229601      -0.98818867      -0.06276593      -0.07482446       0.24001270
O       -1.10964531      -0.59146615      -2.94320263      -0.36232338      -0.03720536       0.09975716
H       -1.98692026      -0.23774167      -3.07493426       0.15758087      -0.15673143       0.01182625
H       -1.17176586      -1.16548721      -2.16340067       0.12380454       0.31315957      -0.15876594
O       -1.15594143      -1.98278354      -0.52970822      -0.47115916       0.09001711       0.53068375
H       -1.45526487      -1.20738055      -0.01772465       0.32072715      -0.65270277      -0.59366550
H       -1.58020440      -2.74752195      -0.15169950       0.14466699       0.27120970      -0.06187016
O        0.14107376       2.05883436      -0.01926722       0.30926938      -0.01018995      -0.07997510
H        0.51912957       1.74251132      -0.84897870      -0.14493063      -0.01712962       0.17364065
H        0.73139721       1.73201994       0.67063902      -0.21256134      -0.05143287      -0.09369491
O       -1.82657048       0.23571114       0.82095669       0.33209410       0.52562187       0.32276197
H       -1.58511838       0.17248468       1.75499938      -0.05442985      -0.08766923      -0.33302442
H       -1.28326678       0.95194249       0.46254645      -0.27089315      -0.36632294       0.10219457
24
Properties=species:S:1:pos:R:3:forces:R:3 energy=-16630.274722585596 pbc="F F F"
O       -2.05320377       1.10790605       0.49700832      -0.35330765       0.01928055       0.27639412
H       -2.84559457       1.63124435       0.58473587       0.21523102      -0.17080488       0.01447691
H       -1.98649907       0.56420675       1.30071831       0.08667477       0.31771998      -0.40968156
O        0.73320464       1.78970115       0.55006695      -0.13082118       0.09001973      -0.41363736
H        1.15376262       1.45808385      -0.25425100      -0.14710110       0.01325779       0.26765011
H       -0.21910977       1.69435855       0.42000580       0.27529806      -0.09126445       0.09701117
O       -0.03475207      -0.12875015      -3.39450116      -0.25045488      -0.30543592      -0.03754248
H       -0.33400837      -0.52179365      -4.20922554      -0.05743937       0.09437374       0.25631967
H       -0.59226247      -0.50628315      -2.69117665       0.40413754       0.20327447      -0.42803261
O        1.97472553       0.51329395      -1.67469549       0.19131781       0.05569802      -0.48238810
H        1.30448798       0.33168005      -2.35653305       0.12459145       0.05736342       0.47910639
H        2.78810720       0.70135855      -2.13505697      -0.23052400      -0.06250152       0.11687722
O        1.16142825      -0.05029515       2.49876499       0.28154872       0.49665798      -0.00213659
H        1.07740287       0.67823955       1.85639906       0.00701109      -0.61778924       0.44968880
H        1.87893180       0.17732015       3.08316088      -0.19002002      -0.03586509      -0.23599638
O        1.11526469      -1.64125475       0.06737637       0.23870653       0.14462960       0.17192423
H        1.19389419      -1.25311305       0.94620275      -0.10551551      -0.02834333      -0.20332193
H        1.54454593      -1.01077295      -0.52553392      -0.24147201      -0.08423834       0.04840287
O       -1.33510897      -1.08967615      -1.20161080       0.10177913       0.04781892       0.45383430
H       -0.56145977      -1.41543035      -0.71817589      -0.25567221       0.13830721      -0.30300078
H       -1.67482677      -0.34742575      -0.68799734       0.12443364      -0.18746784      -0.08908153
O       -1.58473507      -0.52052715       2.65868521       0.14652435      -0.30583732       0.08702311
H       -0.62382047      -0.40668705       2.72634125      -0.29143091       0.00890985      -0.18677641
H       -1.73568837      -1.46385985       2.64301681       0.06116377       0.19537840       0.08118002
24
Properties=species:S:1:pos:R:3:forces:R:3 energy=-16630.286701379282 pbc="F F F"
O        2.33259607      -0.74148048       0.46313632       0.22847560       0.38317534       0.26933501
H        3.24230934      -0.46734668       0.53414994      -0.30290529      -0.02138592       0.02277740
H        1.80520249      -0.10489673       0.97704011       0.30515279      -0.48508714      -0.36078252
O       -1.31296360      -1.27823056       2.01174063       0.02588520      -0.46706705       0.09166163
H       -1.74267743      -1.78397382       2.69610900       0.15932778       0.10253704      -0.22407891
H       -0.75881606      -1.90121067       1.51040989      -0.32445375       0.45240749       0.28243072
O       -0.90837222       2.51185881      -0.08455750      -0.59235856      -0.09843963       0.03461574
H       -1.53957297       3.17018115       0.19332188       0.17020586      -0.22996298      -0.06044145
H       -1.40419375       1.68221657      -0.21522149       0.50659298       0.59358595       0.04642101
O        0.41963649      -0.71221221      -1.71747190       0.27748468       0.24477588      -0.16348849
H        0.48884392       0.14644938      -2.15853637      -0.07686653      -0.25385614       0.29001928
H        1.13194013      -0.71163739      -1.06483197      -0.32072879      -0.14966876      -0.00958189